# vtk DataFile Version 2.0
Really cool data
ASCII
DATASET STRUCTURED_POINTS
DIMENSIONS 3 4 6
ORIGIN 0 0 0
SPACING 1 1 1
POINT_DATA 72
SCALARS x*y*z int 1
LOOKUP_TABLE default
0 0 0 0 0 0 0 0 0 0 0 0 0 0 0 0 1 2 0 2 4 0 3 6 0 0 0 0 2 4 0 4 8 0 6 12 0 0 0 0 3 6 0 6 12 0 9 18 0 0 0 0 4 8 0 8 16 0 12 24 0 0 0 0 5 10 0 10 20 0 15 30