# vtk DataFile Version 2.0
Really cool data
ASCII
DATASET STRUCTURED_GRID
DIMENSIONS 3 4 6
POINTS 72 int
0 0 0
1 0 0
2 0 0
0 1 0
1 1 0
2 1 0
0 2 0
1 2 0
2 2 0
0 3 0
1 3 0
2 3 0
0 0 1
1 0 1
2 0 1
0 1 1
1 1 1
2 1 1
0 2 1
1 2 1
2 2 1
0 3 1
1 3 1
2 3 1
0 0 2
1 0 2
2 0 2
0 1 2
1 1 2
2 1 2
0 2 2
1 2 2
2 2 2
0 3 2
1 3 2
2 3 2
0 0 3
1 0 3
2 0 3
0 1 3
1 1 3
2 1 3
0 2 3
1 2 3
2 2 3
0 3 3
1 3 3
2 3 3
0 0 4
1 0 4
2 0 4
0 1 4
1 1 4
2 1 4
0 2 4
1 2 4
2 2 4
0 3 4
1 3 4
2 3 4
0 0 5
1 0 5
2 0 5
0 1 5
1 1 5
2 1 5
0 2 5
1 2 5
2 2 5
0 3 5
1 3 5
2 3 5
POINT_DATA 72
SCALARS x*y*z int 1
LOOKUP_TABLE default
0 0 0 0 0 0 0 0 0 0 0 0 0 0 0 0 1 2 0 2 4 0 3 6 0 0 0 0 2 4 0 4 8 0 6 12 0 0 0 0 3 6 0 6 12 0 9 18 0 0 0 0 4 8 0 8 16 0 12 24 0 0 0 0 5 10 0 10 20 0 15 30