# vtk DataFile Version 2.0
Really cool data
ASCII
DATASET UNSTRUCTURED_GRID
POINTS 72 int
0 0 0
1 0 0
2 0 0
0 1 0
1 1 0
2 1 0
0 2 0
1 2 0
2 2 0
0 3 0
1 3 0
2 3 0
0 0 1
1 0 1
2 0 1
0 1 1
1 1 1
2 1 1
0 2 1
1 2 1
2 2 1
0 3 1
1 3 1
2 3 1
0 0 2
1 0 2
2 0 2
0 1 2
1 1 2
2 1 2
0 2 2
1 2 2
2 2 2
0 3 2
1 3 2
2 3 2
0 0 3
1 0 3
2 0 3
0 1 3
1 1 3
2 1 3
0 2 3
1 2 3
2 2 3
0 3 3
1 3 3
2 3 3
0 0 4
1 0 4
2 0 4
0 1 4
1 1 4
2 1 4
0 2 4
1 2 4
2 2 4
0 3 4
1 3 4
2 3 4
0 0 5
1 0 5
2 0 5
0 1 5
1 1 5
2 1 5
0 2 5
1 2 5
2 2 5
0 3 5
1 3 5
2 3 5
CELLS 30 270
8 0 1 3 4 12 13 15 16
8 1 2 4 5 13 14 16 17
8 3 4 6 7 15 16 18 19
8 4 5 7 8 16 17 19 20
8 6 7 9 10 18 19 21 22
8 7 8 10 11 19 20 22 23
8 12 13 15 16 24 25 27 28
8 13 14 16 17 25 26 28 29
8 15 16 18 19 27 28 30 31
8 16 17 19 20 28 29 31 32
8 18 19 21 22 30 31 33 34
8 19 20 22 23 31 32 34 35
8 24 25 27 28 36 37 39 40
8 25 26 28 29 37 38 40 41
8 27 28 30 31 39 40 42 43
8 28 29 31 32 40 41 43 44
8 30 31 33 34 42 43 45 46
8 31 32 34 35 43 44 46 47
8 36 37 39 40 48 49 51 52
8 37 38 40 41 49 50 52 53
8 39 40 42 43 51 52 54 55
8 40 41 43 44 52 53 55 56
8 42 43 45 46 54 55 57 58
8 43 44 46 47 55 56 58 59
8 48 49 51 52 60 61 63 64
8 49 50 52 53 61 62 64 65
8 51 52 54 55 63 64 66 67
8 52 53 55 56 64 65 67 68
8 54 55 57 58 66 67 69 70
8 55 56 58 59 67 68 70 71
CELL_TYPES 30
11 11 11 11 11 11 11 11 11 11 11 11 11 11 11 11 11 11 11 11 11 11 11 11 11 11 11 11 11 11
POINT_DATA 72
SCALARS x*y*z int 1
LOOKUP_TABLE default
0 0 0 0 0 0 0 0 0 0 0 0 0 0 0 0 1 2 0 2 4 0 3 6 0 0 0 0 2 4 0 4 8 0 6 12 0 0 0 0 3 6 0 6 12 0 9 18 0 0 0 0 4 8 0 8 16 0 12 24 0 0 0 0 5 10 0 10 20 0 15 30